# OOMMF: rectangular mesh v1.0
# Segment count: 1
# Begin: Segment
# Begin: Header
# Title: /Users/giulio/OneDrive/OneDrive - Politecnico di Milano/Polimi/Spintronics/oommf 3/OOMMF/Project/radius-Oxs_Demag-Field-00-0000000.ohf
# Desc: Oxs vector field output
# Desc: MIF source file: /Users/giulio/OneDrive/OneDrive - Politecnico di Milano/Polimi/Spintronics/oommf 3/OOMMF/Project/radius.mif
# Desc: Iteration: 0, State id: 258266
# Desc: Stage: 0, Stage iteration: 0
# Desc: Stage simulation time: 0 s
# Desc: Total simulation time: 0 s
# meshtype: rectangular
# meshunit: m
# xbase: 5.0000000000000001e-09
# ybase: 5.0000000000000001e-09
# zbase: 1.2499999999999999e-08
# xstepsize: 1e-08
# ystepsize: 1e-08
# zstepsize: 2.4999999999999999e-08
# xnodes: 200
# ynodes: 10
# znodes: 1
# xmin: 0
# ymin: 0
# zmin: 0
# xmax: 1.9999999999999999e-06
# ymax: 9.9999999999999995e-08
# zmax: 2.4999999999999999e-08
# valueunit: A/m
# valuemultiplier: 1
# ValueRangeMinMag: 10.264427068753781
# ValueRangeMaxMag: 269805.65136971197
# End: Header
# Begin: Data Text
-113038.58779948068 -143441.64853904871  0.0000000000000000
 223929.58589329745 -71835.402353876125  0.0000000000000000
 90343.605217171047 -42684.735212588595  0.0000000000000000
 54784.359706352450 -27990.405422292173  0.0000000000000000
 38498.963772116782 -19487.490383211829  0.0000000000000000
 29135.795010652535 -14121.441276916650  0.0000000000000000
 23040.452380198487 -10534.650587778908  0.0000000000000000
 18759.845657397807 -8038.4354250677379  0.0000000000000000
 15599.993120638395 -6248.3585404185824  0.0000000000000000
 13184.850830993473 -4934.1845680843599  0.0000000000000000
 11291.071410456487 -3950.6252793088465  0.0000000000000000
 9776.5808231626579 -3202.3074204868926  0.0000000000000000
 8546.1684961293286 -2624.6890349116911  0.0000000000000000
 7533.4176146139762 -2173.0232726863205  0.0000000000000000
 6690.5229802146114 -1815.6641182541030  0.0000000000000000
 5982.2080624438786 -1529.8492397736218  0.0000000000000000
 5381.9101813986390 -1298.9621674818700  0.0000000000000000
 4869.2899737871485 -1110.7111475884926  0.0000000000000000
 4428.5505073628228 -955.89317349081057  0.0000000000000000
 4047.2712086394754 -827.54072605200122  0.0000000000000000
 3715.5801896925673 -720.32389212194926  0.0000000000000000
 3425.5553341837704 -630.12582035568880  0.0000000000000000
 3170.7837369857757 -553.73760169617776  0.0000000000000000
 2946.0329881916623 -488.63652075610275  0.0000000000000000
 2747.0028351204528 -432.82321971100930  0.0000000000000000
 2570.1354747267319 -384.70095236541573  0.0000000000000000
 2412.4691902318687 -342.98522248934432  0.0000000000000000
 2271.5243909285600 -306.63557231685547  0.0000000000000000
 2145.2141695883811 -274.80366064726491  0.0000000000000000
 2031.7735210808858 -246.79343377811369  0.0000000000000000
 1929.7029915802236 -222.03033965021496  0.0000000000000000
 1837.7234576884343 -200.03736121675627  0.0000000000000000
 1754.7396688336171 -180.41623064626083  0.0000000000000000
 1679.8106549837571 -162.83260998778297  0.0000000000000000
 1612.1255913606960 -147.00431689510378  0.0000000000000000
 1550.9840153200757 -132.69192679637143  0.0000000000000000
 1495.7795502083450 -119.69121078085560  0.0000000000000000
 1445.9864426618133 -107.82702709629314  0.0000000000000000
 1401.1483892049807 -96.948348088504474  0.0000000000000000
 1360.8692814078286 -86.924199772675365  0.0000000000000000
 1324.8054119652643 -77.640307301891653  0.0000000000000000
 1292.6590681150010 -68.996329518875271  0.0000000000000000
 1264.1730857055252 -60.903542671015153  0.0000000000000000
 1239.1263729849254 -53.282900178901713  0.0000000000000000
 1217.3301246654794 -46.063384635823454  0.0000000000000000
 1198.6247467727087 -39.180602408569023  0.0000000000000000
 1182.8772796023347 -32.575564909788369  0.0000000000000000
 1169.9793339748528 -26.193622393630356  0.0000000000000000
 1159.8454472101519 -19.983515289561023  0.0000000000000000
 1152.4118245162804 -13.896515299255981  0.0000000000000000
 1147.6354326581827 -7.8856317974124579  0.0000000000000000
 1145.4934233142853 -1.9048616607525517  0.0000000000000000
 1145.9828723602591  4.0915376764952853  0.0000000000000000
 1149.1208296364543  10.149771285456424  0.0000000000000000
 1154.9446819079499  16.317245185077326  0.0000000000000000
 1163.5128399976052  22.643340111943651  0.0000000000000000
 1174.9057706898266  29.180242061187585  0.0000000000000000
 1189.2273917288812  35.983853283239384  0.0000000000000000
 1206.6069217531158  43.114811873096301  0.0000000000000000
 1227.2011101016024  50.639649901476176  0.0000000000000000
 1251.1971075406288  58.632130577070313  0.0000000000000000
 1278.8158586932036  67.174808772270069  0.0000000000000000
 1310.3163146905681  76.360874487015110  0.0000000000000000
 1346.0003972142549  86.296342302047833  0.0000000000000000
 1386.2190992595097  97.102687939308112  0.0000000000000000
 1431.3797457097171  108.92002750485585  0.0000000000000000
 1481.9547928119232  121.91099103073088  0.0000000000000000
 1538.4924530963160  136.26546561595615  0.0000000000000000
 1601.6295602001967  152.20644349870236  0.0000000000000000
 1672.1072338905728  169.99726280537902  0.0000000000000000
 1750.7900025961892  189.95064887730587  0.0000000000000000
 1838.6892717769442  212.44004955951505  0.0000000000000000
 1936.9922563899286  237.91394658409763  0.0000000000000000
 2047.0978980736245  266.91403673379727  0.0000000000000000
 2170.6616540744162  300.09847592969345  0.0000000000000000
 2309.6518190011016  338.27179602200704  0.0000000000000000
 2466.4207882541286  382.42368292692947  0.0000000000000000
 2643.7960192163641  433.77959638887046  0.0000000000000000
 2845.1971381448780  493.86735112633642  0.0000000000000000
 3074.7882209257941  564.60537626127211  0.0000000000000000
 3337.6780094422588  648.42067674553573  0.0000000000000000
 3640.1864835804536  748.40786163612609  0.0000000000000000
 3990.2049150590219  868.54550799673848  0.0000000000000000
 4397.6903746059561  1013.9934676475249  0.0000000000000000
 4875.3583026584074  1191.5058592328232  0.0000000000000000
 5439.6751514840262  1410.0118993975943  0.0000000000000000
 6112.3206530735342  1681.4447665515002  0.0000000000000000
 6922.4130563472081  2021.9459506475212  0.0000000000000000
 7910.0274924531632  2453.6566562580115  0.0000000000000000
 9132.0119483357357  3007.4679032787471  0.0000000000000000
 10672.103610305812  3727.4291245762033  0.0000000000000000
 12659.568534531398  4678.2411545389969  0.0000000000000000
 15305.855275982671  5958.9878434443362  0.0000000000000000
 18982.302795772746  7730.6604890664685  0.0000000000000000
 24400.769133278922  10276.946687074877  0.0000000000000000
 33088.752628272945  14152.021435216173  0.0000000000000000
 48895.833974306981  20574.150771289984  0.0000000000000000
 84572.777114090248  32576.158954258099  0.0000000000000000
 219451.18116403528  58810.219465597722  0.0000000000000000
-114741.68839496467  128348.92001507521  0.0000000000000000
-99021.212122347002  128280.42072650578  0.0000000000000000
-73263.599464522820  58616.420158286746  0.0000000000000000
-49499.835007849557  32287.810935366841  0.0000000000000000
-35120.194088329576  20230.698627184105  0.0000000000000000
-26217.948395496896  13790.897319676817  0.0000000000000000
-20382.089208135731  9926.8225512219487  0.0000000000000000
-16336.027519697687  7409.5360052782635  0.0000000000000000
-13397.028770099419  5675.5816386600518  0.0000000000000000
-11182.801616156361  4434.6789590715580  0.0000000000000000
-9466.9191085031962  3521.8676837860321  0.0000000000000000
-8107.6303447340006  2836.0837145361447  0.0000000000000000
-7011.7071518465127  2311.9344786443839  0.0000000000000000
-6115.2397647656780  1905.4125209292770  0.0000000000000000
-5372.9098029354473  1586.0297713269117  0.0000000000000000
-4751.6903921555095  1332.1851621581397  0.0000000000000000
-4226.9700284029532  1128.2928726511327  0.0000000000000000
-3780.0674898840680  962.93222804692664  0.0000000000000000
-3396.5813788785222  827.62044913376758  0.0000000000000000
-3065.2609064556659  715.97970974304997  0.0000000000000000
-2777.2138061165165  623.16116152343193  0.0000000000000000
-2525.3389558345057  545.44031580206024  0.0000000000000000
-2303.9126534376783  479.92884673413846  0.0000000000000000
-2108.2822817955575  424.36676622124423  0.0000000000000000
-1934.6364305660190  376.97085138715966  0.0000000000000000
-1779.8303461546075  336.32293966870475  0.0000000000000000
-1641.2519762626944  301.28679930289036  0.0000000000000000
-1516.7181903640667  270.94569396917723  0.0000000000000000
-1404.3936421286598  244.55508874863153  0.0000000000000000
-1302.7268643500975  221.50652676191385  0.0000000000000000
-1210.3994997194968  201.29982676469444  0.0000000000000000
-1126.2857397257976  183.52152759653200  0.0000000000000000
-1049.4196626093726  167.82805944004849  0.0000000000000000
-978.96878911613567  153.93251285500310  0.0000000000000000
-914.21254022735502  141.59418260543498  0.0000000000000000
-854.52460014986718  130.61023921632113  0.0000000000000000
-799.35837174278549  120.80907156063950  0.0000000000000000
-748.23494676363907  112.04492790784843  0.0000000000000000
-700.73311682978283  104.19358556377961  0.0000000000000000
-656.48096764194042  97.148826741069229  0.0000000000000000
-615.14890576059861  90.819571286260384  0.0000000000000000
-576.44367503700755  85.127520462871189  0.0000000000000000
-540.10337094118768  80.005220509827950  0.0000000000000000
-505.89312397633512  75.394466043411342  0.0000000000000000
-473.60147438262584  71.244977882259207  0.0000000000000000
-443.03717050988416  67.513306667342249  0.0000000000000000
-414.02648062557637  64.161921839833326  0.0000000000000000
-386.41079915357193  61.158455865612780  0.0000000000000000
-360.04457101913874  58.475076832374015  0.0000000000000000
-334.79345643186957  56.087969816593045  0.0000000000000000
-310.53269776961940  53.976910803578932  0.0000000000000000
-287.14565223225839  52.124920421844308  0.0000000000000000
-264.52245872684330  50.517987561569981  0.0000000000000000
-242.55881116635771  49.144855329881381  0.0000000000000000
-221.15481316866203  47.996863868805036  0.0000000000000000
-200.21389113882412  47.067846426894050  0.0000000000000000
-179.64174399035846  46.354076819323666  0.0000000000000000
-159.34530832938594  45.854268118697291  0.0000000000000000
-139.23171576312848  45.569624006562208  0.0000000000000000
-119.20723429604095  45.503947395429691  0.0000000000000000
-99.176128541673279  45.663808631929896  0.0000000000000000
-79.039482473084604  46.058787124840471  0.0000000000000000
-58.693882008953835  46.701790340900885  0.0000000000000000
-38.029973046712314  47.609473265021535  0.0000000000000000
-16.930832193828508  48.802767402358384  0.0000000000000000
 4.7298937574467459  50.307557285626153  0.0000000000000000
 27.090132366028172  52.155525008907915  0.0000000000000000
 50.301894598812169  54.385217290147473  0.0000000000000000
 74.534234324879549  57.043382042226753  0.0000000000000000
 99.976769432644517  60.186656832826642  0.0000000000000000
 126.84389912506549  63.883703198883978  0.0000000000000000
 155.37990643083566  68.217919302189074  0.0000000000000000
 185.86516345154138  73.290905859137709  0.0000000000000000
 218.62373029993790  79.226924357919174  0.0000000000000000
 254.03272585708618  86.178668025238323  0.0000000000000000
 292.53395066773049  94.334790593888044  0.0000000000000000
 334.64840217687697  103.92980690947044  0.0000000000000000
 380.99450463678761  115.25722620387309  0.0000000000000000
 432.31115447687677  128.68713439599023  0.0000000000000000
 489.48701920359173  144.68996610638845  0.0000000000000000
 553.59800310424350  163.86898349337241  0.0000000000000000
 625.95540453264448  187.00514401060499  0.0000000000000000
 708.16809265538063  215.11981449415140  0.0000000000000000
 802.22304413917539  249.56352112085327  0.0000000000000000
 910.58977771886464  292.14318171957080  0.0000000000000000
 1036.3554823186200  345.30699054510490  0.0000000000000000
 1183.3984708910473  412.41684262085698  0.0000000000000000
 1356.6068200041991  498.15543494956148  0.0000000000000000
 1562.1436869197798  609.14305938542304  0.0000000000000000
 1807.7437804854010  754.88401806077161  0.0000000000000000
 2102.9803535371570  949.23367046466365  0.0000000000000000
 2459.3310175784563  1212.6841056880530  0.0000000000000000
 2889.6077921981423  1575.9073416253518  0.0000000000000000
 3405.7133696706037  2085.1073867458026  0.0000000000000000
 4012.3564397910213  2809.5279684122738  0.0000000000000000
 4691.6642521137201  3849.9184263829038  0.0000000000000000
 5369.2321247509026  5340.7863668226373  0.0000000000000000
 5849.8837188637617  7421.4730054604261  0.0000000000000000
 5734.4806975656002  10113.702663136148  0.0000000000000000
 4444.3126343488566  13030.224241875174  0.0000000000000000
 1671.2275241025961  15097.691529904514  0.0000000000000000
 179767.18279921013 -69661.100372232890  0.0000000000000000
 144261.61827785525  1836.5817660216619  0.0000000000000000
 95011.222588265897 -21812.023583259826  0.0000000000000000
 62145.310824492859 -19802.348030016197  0.0000000000000000
 43941.157400035438 -15248.885727737772  0.0000000000000000
 32939.871310441864 -11481.318119969896  0.0000000000000000
 25720.333437911460 -8691.6601630687237  0.0000000000000000
 20681.971486884235 -6660.5846086575202  0.0000000000000000
 17004.273885719922 -5174.1834856011919  0.0000000000000000
 14228.461303689603 -4074.0489103510808  0.0000000000000000
 12078.799456795388 -3249.2182777014814  0.0000000000000000
 10379.676929551320 -2622.6569601739589  0.0000000000000000
 9013.9820560538392 -2140.6178778963686  0.0000000000000000
 7900.7046928860873 -1765.2373354037363  0.0000000000000000
 6982.1351030795222 -1469.5386826478893  0.0000000000000000
 6216.1627389021423 -1234.0752777003740  0.0000000000000000
 5571.4388218417926 -1044.6638110656218  0.0000000000000000
 5024.2261811736698 -890.84085570907428  0.0000000000000000
 4556.2850771496196 -764.80144428666586  0.0000000000000000
 4153.4179100488054 -660.66147522531412  0.0000000000000000
 3804.4456945793336 -573.93969389750941  0.0000000000000000
 3500.4747722147599 -501.19003669956544  0.0000000000000000
 3234.3629286948139 -439.73797881477344  0.0000000000000000
 3000.3251295772361 -387.48955405085707  0.0000000000000000
 2793.6386394698147 -342.79165546871934  0.0000000000000000
 2610.4199357544185 -304.32888137490824  0.0000000000000000
 2447.4541662842666 -271.04667413259739  0.0000000000000000
 2302.0635286555885 -242.09354361334243  0.0000000000000000
 2172.0047738076059 -216.77728066040140  0.0000000000000000
 2055.3887688375103 -194.53149806382328  0.0000000000000000
 1950.6168444189370 -174.88987166992206  0.0000000000000000
 1856.3301171973533 -157.46616121350462  0.0000000000000000
 1771.3688365947507 -141.93860538790489  0.0000000000000000
 1694.7395980445665 -128.03764760256476  0.0000000000000000
 1625.5887421163181 -115.53622301611526  0.0000000000000000
 1563.1806542460045 -104.24201877912003  0.0000000000000000
 1506.8799873782614 -93.991270271486854  0.0000000000000000
 1456.1370227229359 -84.643760093715542  0.0000000000000000
 1410.4755875517799 -76.078758876976082  0.0000000000000000
 1369.4830218357959 -68.191710975261088  0.0000000000000000
 1332.8018656292854 -60.891519054590525  0.0000000000000000
 1300.1229078844801 -54.098288145841693  0.0000000000000000
 1271.1794263360262 -47.741460143563479  0.0000000000000000
 1245.7423671321671 -41.758239856277925  0.0000000000000000
 1223.6163602387553 -36.092270465860928  0.0000000000000000
 1204.6364047318477 -30.692498287413443  0.0000000000000000
 1188.6651713599231 -25.512195071080246  0.0000000000000000
 1175.5908040599541 -20.508101689325436  0.0000000000000000
 1165.3251846678872 -15.639667779794461  0.0000000000000000
 1157.8026044279377 -10.868364108645789  0.0000000000000000
 1152.9788086757414 -6.1570478193389668  0.0000000000000000
 1150.8303901776676 -1.4693628178034466  0.0000000000000000
 1151.3545162158466  3.2308410777168888  0.0000000000000000
 1154.5689835527596  7.9800858903058369  0.0000000000000000
 1160.5126042548131  12.815855741534975  0.0000000000000000
 1169.2459343472669  17.777215778063422  0.0000000000000000
 1180.8523653255520  22.905477124958601  0.0000000000000000
 1195.4396204684083  28.244927628253649  0.0000000000000000
 1213.1416688020699  33.843648927814996  0.0000000000000000
 1234.1211751577325  39.754450189186102  0.0000000000000000
 1258.5724736448810  46.035941905805345  0.0000000000000000
 1286.7252543713746  52.753799554757023  0.0000000000000000
 1318.8489968872072  59.982245936679391  0.0000000000000000
 1355.2583565907594  67.805834889327201  0.0000000000000000
 1396.3196651907483  76.321581078844588  0.0000000000000000
 1442.4587776765129  85.641550439308276  0.0000000000000000
 1494.1705704225060  95.896016229180987  0.0000000000000000
 1552.0304578955756  107.23733199923447  0.0000000000000000
 1616.7084026616913  119.84471700848144  0.0000000000000000
 1688.9860235419821  133.93020345141031  0.0000000000000000
 1769.7775806870611  149.74606873781249  0.0000000000000000
 1860.1558344945581  167.59418832372830  0.0000000000000000
 1961.3841166794568  187.83787143576865  0.0000000000000000
 2074.9562840756662  210.91693753606614  0.0000000000000000
 2202.6468971499407  237.36704591312582  0.0000000000000000
 2346.5745931617903  267.84464467653606  0.0000000000000000
 2509.2828149059701  303.15938681871944  0.0000000000000000
 2693.8434458346946  344.31655390168339  0.0000000000000000
 2903.9910708585621  392.57296057174790  0.0000000000000000
 3144.2986318298963  449.51115930091305  0.0000000000000000
 3420.4097462410591  517.13864162803861  0.0000000000000000
 3739.3496970628166  598.02138627970658  0.0000000000000000
 4109.9474416452886  695.46486490807945  0.0000000000000000
 4543.4172041461297  813.76088087343851  0.0000000000000000
 5054.1744657256095  958.52595880349429  0.0000000000000000
 5661.0050101373572  1137.1669730903932  0.0000000000000000
 6388.7817654149612  1359.5227139166000  0.0000000000000000
 7271.0617292718789  1638.7455917176567  0.0000000000000000
 8354.1555829979698  1992.5022539286870  0.0000000000000000
 9703.7799558354018  2444.5738395285011  0.0000000000000000
 11416.485329147523  3026.8907764683272  0.0000000000000000
 13640.447112913404  3781.8376179460465  0.0000000000000000
 16615.814255821515  4763.9683687226379  0.0000000000000000
 20758.750105954929  6037.8334238335492  0.0000000000000000
 26850.106250503279  7659.1254553341532  0.0000000000000000
 36491.402037909334  9583.0793967375648  0.0000000000000000
 53259.839179075192  11207.012123399600  0.0000000000000000
 85213.810676286361  8717.3528256026893  0.0000000000000000
 135569.62614391383 -20938.167324406037  0.0000000000000000
 176074.30705066200  45362.073837760661  0.0000000000000000
-248393.87459393987  97898.572678077428  0.0000000000000000
-111791.35128475062  43913.084935791623  0.0000000000000000
-64768.488619901720  24558.400496794486  0.0000000000000000
-42660.242130389866  15901.585649644137  0.0000000000000000
-30564.501112054168  11143.103424485565  0.0000000000000000
-23156.815144191765  8152.9271624192825  0.0000000000000000
-18223.975429484817  6129.2806307856281  0.0000000000000000
-14735.045385844849  4701.4092907929517  0.0000000000000000
-12158.113275733180  3666.7104644278379  0.0000000000000000
-10193.113445236228  2901.9262957063365  0.0000000000000000
-8657.7982323816650  2327.2550220727621  0.0000000000000000
-7434.7883779876174  1889.0855550597496  0.0000000000000000
-6444.9421834300119  1550.5105481848882  0.0000000000000000
-5632.9557965020158  1285.6485773708587  0.0000000000000000
-4959.0710713198860  1076.0668095985120  0.0000000000000000
-4394.0406651676249  908.45398252665348  0.0000000000000000
-3915.9342653977965  773.07322753654080  0.0000000000000000
-3508.0387787430841  662.71591369316241  0.0000000000000000
-3157.4364597384933  571.98408276720534  0.0000000000000000
-2854.0182052131490  496.79187753204224  0.0000000000000000
-2589.7845060677910  434.01493159242295  0.0000000000000000
-2358.3413232574167  381.24098112177853  0.0000000000000000
-2154.5308578798704  336.59052749815100  0.0000000000000000
-1974.1573955165286  298.58652536178806  0.0000000000000000
-1813.7812275433025  266.05874306483838  0.0000000000000000
-1670.5620176194207  238.07289495473560  0.0000000000000000
-1542.1385305123367  213.87765423232486  0.0000000000000000
-1426.5354332659663  192.86468137580414  0.0000000000000000
-1322.0904120387495  174.53822574702264  0.0000000000000000
-1227.3967653218933  158.49182203499117  0.0000000000000000
-1141.2577947271111  144.39029007768659  0.0000000000000000
-1062.6503529595793  131.95573080604572  0.0000000000000000
-990.69548955423397  120.95655969398740  0.0000000000000000
-924.63467565854717  111.19885770218480  0.0000000000000000
-863.81042492468987  102.51951203850604  0.0000000000000000
-807.65041531711540  94.780743564545446  0.0000000000000000
-755.65440130569777  87.865713794874068  0.0000000000000000
-707.38336857957120  81.674982378103550  0.0000000000000000
-662.45050983927740  76.123639017109326  0.0000000000000000
-620.51366452702814  71.138958733084337  0.0000000000000000
-581.26897077104604  66.658497190125786  0.0000000000000000
-544.44548900624773  62.628514558313157  0.0000000000000000
-509.80065823567384  59.002686789764653  0.0000000000000000
-477.11637641720449  55.741034032448624  0.0000000000000000
-446.19568762976928  52.809037653799948  0.0000000000000000
-416.85988805436227  50.176906098139284  0.0000000000000000
-388.94602548924911  47.818966360731793  0.0000000000000000
-362.30471308488643  45.713159893746791  0.0000000000000000
-336.79820354225819  43.840626322245498  0.0000000000000000
-312.29867843925797  42.185361867561625  0.0000000000000000
-288.68671355341917  40.733942111473837  0.0000000000000000
-265.84988629696761  39.475301034903083  0.0000000000000000
-243.68149542952096  38.400560214189852  0.0000000000000000
-222.07936625775005  37.502903751918893  0.0000000000000000
-200.94471667153630  36.777496042580992  0.0000000000000000
-180.18106071424245  36.221440898854098  0.0000000000000000
-159.69312694178370  35.833781961798536  0.0000000000000000
-139.38576933798868  35.615545727801873  0.0000000000000000
-119.16284123224682  35.569830282796147  0.0000000000000000
-98.926026655644819  35.701944056302636  0.0000000000000000
-78.573558953683118  36.019601661986499  0.0000000000000000
-57.998846404812184  36.533186065287104  0.0000000000000000
-37.088930719580731  37.256089468580718  0.0000000000000000
-15.722730204568450  38.205148334384795  0.0000000000000000
 6.2309443874589761  39.401196190070621  0.0000000000000000
 28.915730550438639  40.869758504028553  0.0000000000000000
 52.490436771619386  42.641930158436921  0.0000000000000000
 77.132289856627779  44.755480738102371  0.0000000000000000
 103.04081477276986  47.256252670238908  0.0000000000000000
 130.44252832570805  50.199935778467406  0.0000000000000000
 159.59664679643930  53.654331953263735  0.0000000000000000
 190.80209695195904  57.702262270734721  0.0000000000000000
 224.40617358792255  62.445323425013456  0.0000000000000000
 260.81533182589692  68.008778999478110  0.0000000000000000
 300.50872347414918  74.547978521537601  0.0000000000000000
 344.05531778526222  82.256858299377271  0.0000000000000000
 392.13572085393423  91.379303636388670  0.0000000000000000
 445.57020847547278  102.22449426161828  0.0000000000000000
 505.35505086072794  115.18785431130991  0.0000000000000000
 572.70998300317092  130.77999556111669  0.0000000000000000
 649.14080303790115  149.66721011013061  0.0000000000000000
 736.52268017851668  172.72889750279845  0.0000000000000000
 837.21205896368463  201.14020677974162  0.0000000000000000
 954.19838271715673  236.49284959191806  0.0000000000000000
 1091.3116549831182  280.97472582216267  0.0000000000000000
 1253.5087089294111  337.64188570567228  0.0000000000000000
 1447.2705647187977  410.83838358165764  0.0000000000000000
 1681.1556861553840  506.85802068884124  0.0000000000000000
 1966.5678059375196  635.01040164496931  0.0000000000000000
 2318.8048962878579  809.37771496831863  0.0000000000000000
 2758.4323973982468  1051.7762726164569  0.0000000000000000
 3312.8903835037809  1396.8558350782039  0.0000000000000000
 4017.7680861929480  1901.0247135189129  0.0000000000000000
 4915.6852255119047  2658.1401301842461  0.0000000000000000
 6046.3053771868499  3826.4171395437725  0.0000000000000000
 7408.6849455022966  5669.9478322884470  0.0000000000000000
 8846.7446717689236  8599.4001718754535  0.0000000000000000
 9760.9857805710453  13098.663338007780  0.0000000000000000
 8657.8273646906164  19105.511835967725  0.0000000000000000
 3660.9358900153602  24302.891739166091  0.0000000000000000
 254162.48837022696 -37685.323629305123  0.0000000000000000
 141114.37769619146 -19013.754193741719  0.0000000000000000
 93917.712945215317 -15276.020216735693  0.0000000000000000
 65302.502976207572 -13323.431541114418  0.0000000000000000
 47299.712826427167 -10746.999787132638  0.0000000000000000
 35638.569534986877 -8351.2867266805515  0.0000000000000000
 27749.094093425148 -6427.4841399528350  0.0000000000000000
 22184.071113397018 -4961.4786700937238  0.0000000000000000
 18118.324967366778 -3862.3120344494482  0.0000000000000000
 15061.444528223490 -3039.0142839150431  0.0000000000000000
 12708.301089261633 -2418.6905723726209  0.0000000000000000
 10860.936229796560 -1947.0134586208537  0.0000000000000000
 9386.2367306878368 -1584.5637458561584  0.0000000000000000
 8191.9566651744981 -1302.9664361955927  0.0000000000000000
 7212.5277979009934 -1081.7759029680906  0.0000000000000000
 6400.3256257885387 -906.17709490596962  0.0000000000000000
 5720.1063123087697 -765.34833366855332  0.0000000000000000
 5145.3575475085054 -651.31138789605529  0.0000000000000000
 4655.8435436063137 -558.12644668654752  0.0000000000000000
 4235.9167890386561 -481.32719638950704  0.0000000000000000
 3873.3345820178401 -417.52217382843719  0.0000000000000000
 3558.4151786147654 -364.11137038561651  0.0000000000000000
 3283.4268766192013 -319.08307913937227  0.0000000000000000
 3042.1396017780999 -280.86696625181253  0.0000000000000000
 2829.4916303212935 -248.22684565388479  0.0000000000000000
 2641.3390230356090 -220.18171839058783  0.0000000000000000
 2474.2652358734836 -195.94710880371804  0.0000000000000000
 2325.4350414472165 -174.89110489975451  0.0000000000000000
 2192.4814211479029 -156.50113575274287  0.0000000000000000
 2073.4172322107825 -140.35866413908604  0.0000000000000000
 1966.5657016627019 -126.11975735773615  0.0000000000000000
 1870.5052997670391 -113.50005609737741  0.0000000000000000
 1784.0257423160035 -102.26306624047743  0.0000000000000000
 1706.0926357849632 -92.210973110376301  0.0000000000000000
 1635.8189001194528 -83.177384953243546  0.0000000000000000
 1572.4415458811336 -75.021567944375505  0.0000000000000000
 1515.3027055458494 -67.623833187683999  0.0000000000000000
 1463.8340656631394 -60.881822879652979  0.0000000000000000
 1417.5440519402764 -54.707505057588243  0.0000000000000000
 1376.0072042925483 -49.024723323219270  0.0000000000000000
 1338.8554198849297 -43.767186947372636  0.0000000000000000
 1305.7706244631966 -38.876816315690164  0.0000000000000000
 1276.4787144435877 -34.302360663288376  0.0000000000000000
 1250.7445217280738 -29.998249755676881  0.0000000000000000
 1228.3675953192478 -25.923613819183768  0.0000000000000000
 1209.1787954095557 -22.041457171054432  0.0000000000000000
 1193.0374290387540 -18.317939634883853  0.0000000000000000
 1179.8289772603066 -14.721750899606215  0.0000000000000000
 1169.4632834617546 -11.223554972489044  0.0000000000000000
 1161.8731705615610 -7.7954882391614113  0.0000000000000000
 1157.0134476507624 -4.4106964581559964  0.0000000000000000
 1154.8602800419690 -1.0428976048668410  0.0000000000000000
 1155.4109069126043  2.3340414944092345  0.0000000000000000
 1158.6837003423057  5.7465262740868432  0.0000000000000000
 1164.7185689388084  9.2216647721329679  0.0000000000000000
 1173.5777188058528  12.787719111614663  0.0000000000000000
 1185.3467968507612  16.474590949703860  0.0000000000000000
 1200.1364324393066  20.314354701334814  0.0000000000000000
 1218.0842897412558  24.341858355867473  0.0000000000000000
 1239.3575600992704  28.595400678830487  0.0000000000000000
 1264.1561350307795  33.117526955681740  0.0000000000000000
 1292.7164405770734  37.955947936810531  0.0000000000000000
 1325.3160985980130  43.164639440447587  0.0000000000000000
 1362.2796147665570  48.805145724601175  0.0000000000000000
 1403.9851947029213  54.948156943141043  0.0000000000000000
 1450.8730629409276  61.675419301146746  0.0000000000000000
 1503.4555031630634  69.082069348291725  0.0000000000000000
 1562.3290913803305  77.279504158642226  0.0000000000000000
 1628.1895980993427  86.398933507862694  0.0000000000000000
 1701.8502485535178  96.595798879125596  0.0000000000000000
 1784.2641863106037  108.05531236336265  0.0000000000000000
 1876.5522546870961  120.99943527133746  0.0000000000000000
 1980.0375367850270  135.69572678976238  0.0000000000000000
 2096.2885967271359  152.46864167622607  0.0000000000000000
 2227.1739187470575  171.71403835643787  0.0000000000000000
 2374.9310038273757  193.91794097177126  0.0000000000000000
 2542.2546817144334  219.68096394697670  0.0000000000000000
 2732.4109560083607  249.75031597151849  0.0000000000000000
 2949.3850696650429  285.06202219544258  0.0000000000000000
 3198.0759191631269  326.79698436420136  0.0000000000000000
 3484.5540069837834  376.45586293736562  0.0000000000000000
 3816.4076009475339  435.95963637953048  0.0000000000000000